125
Energy =     1 kcal/mol
Ar -1.51825 -0.87749 -0.62141
Ar -1.14102 -0.87848 -0.61961
Ar -0.75978 -0.87717 -0.62105
Ar -0.38104 -0.87581 -0.62102
Ar 0.00081 -0.87846 -0.62116
Ar -1.33068 -0.54935 -0.61988
Ar -0.95059 -0.54762 -0.62082
Ar -0.56961 -0.54854 -0.61959
Ar -0.19153 -0.54711 -0.61986
Ar 0.19093 -0.54789 -0.61970
Ar -1.13907 -0.22020 -0.62114
Ar -0.75955 -0.21801 -0.61965
Ar -0.37938 -0.21885 -0.62173
Ar -0.00102 -0.22029 -0.62116
Ar 0.37867 -0.21886 -0.62118
Ar -0.94911 0.11029 -0.62043
Ar -0.56897 0.11012 -0.62108
Ar -0.19120 0.10847 -0.62120
Ar 0.18880 0.11037 -0.61976
Ar 0.56923 0.10854 -0.62199
Ar -0.76025 0.43810 -0.62113
Ar -0.38016 0.43814 -0.62156
Ar -0.00041 0.43843 -0.62126
Ar 0.37939 0.43989 -0.61844
Ar 0.75961 0.43783 -0.61927
Ar -1.33082 -0.76883 -0.30927
Ar -0.95119 -0.76802 -0.31090
Ar -0.56891 -0.76878 -0.31202
Ar -0.18960 -0.76736 -0.31133
Ar 0.18863 -0.76850 -0.31017
Ar -1.14117 -0.43804 -0.30965
Ar -0.76083 -0.43940 -0.31140
Ar -0.37904 -0.43845 -0.30914
Ar 0.00106 -0.43936 -0.30935
Ar 0.37888 -0.43817 -0.30918
Ar -0.94945 -0.10857 -0.31084
Ar -0.56891 -0.10782 -0.30965
Ar -0.19111 -0.11039 -0.30962
Ar 0.19096 -0.10997 -0.30888
Ar 0.57080 -0.11049 -0.31180
Ar -0.75824 0.22044 -0.30960
Ar -0.38054 0.21875 -0.30946
Ar -0.00162 0.21957 -0.31100
Ar 0.37968 0.21861 -0.31218
Ar 0.75931 0.21859 -0.30937
Ar -0.57045 0.54926 -0.31006
Ar -0.19071 0.54774 -0.31070
Ar 0.18927 0.54767 -0.31090
Ar 0.57039 0.54921 -0.31147
Ar 0.94918 0.54892 -0.30952
Ar -1.14023 -0.65948 0.00088
Ar -0.76064 -0.65831 0.00111
Ar -0.37838 -0.65732 0.00034
Ar -0.00111 -0.65950 -0.00033
Ar 0.38099 -0.65849 -0.00053
Ar -0.94875 -0.32966 0.00107
Ar -0.57016 -0.32789 -0.00049
Ar -0.19065 -0.32837 0.00091
Ar 0.19137 -0.32835 -0.00063
Ar 0.57114 -0.32749 0.00072
Ar -0.75945 -0.00125 -0.00078
Ar -0.38130 0.00101 0.00144
Ar 0.00102 -0.00164 0.00063
Ar 0.38024 -0.00072 -0.00026
Ar 0.75931 -0.00036 0.00068
Ar -0.57054 0.33122 0.00034
Ar -0.18864 0.32824 0.00120
Ar 0.18915 0.32975 -0.00022
Ar 0.56943 0.33021 0.00125
Ar 0.94951 0.32995 -0.00052
Ar -0.37923 0.65783 -0.00117
Ar -0.00117 0.65753 0.00051
Ar 0.38079 0.65731 -0.00065
Ar 0.76054 0.65744 -0.00071
Ar 1.14120 0.65724 -0.00073
Ar -0.95098 -0.54806 0.31156
Ar -0.57078 -0.54877 0.31062
Ar -0.19022 -0.54950 0.30985
Ar 0.18920 -0.54945 0.30967
Ar 0.56959 -0.54963 0.30865
Ar -0.75977 -0.22129 0.31087
Ar -0.38130 -0.21929 0.30900
Ar -0.00059 -0.21841 0.31125
Ar 0.37885 -0.21983 0.31056
Ar 0.76073 -0.21864 0.31080
Ar -0.57088 0.11084 0.30886
Ar -0.18962 0.11055 0.31086
Ar 0.18895 0.10887 0.30980
Ar 0.56891 0.11082 0.31127
Ar 0.95123 0.11057 0.31104
Ar -0.37895 0.43727 0.30977
Ar 0.00072 0.43777 0.30850
Ar 0.37864 0.43837 0.31002
Ar 0.75970 0.43820 0.30951
Ar 1.14127 0.43798 0.30996
Ar -0.19015 0.76907 0.31164
Ar 0.19019 0.76942 0.31006
Ar 0.57006 0.76754 0.30987
Ar 0.95169 0.76934 0.30934
Ar 1.33109 0.76847 0.31145
Ar -0.76047 -0.43791 0.62141
Ar -0.37936 -0.43969 0.62122
Ar -0.00028 -0.43956 0.62148
Ar 0.38107 -0.43829 0.61952
Ar 0.76051 -0.43769 0.62007
Ar -0.56992 -0.10940 0.62130
Ar -0.19081 -0.10871 0.62125
Ar 0.19047 -0.10852 0.61984
Ar 0.57036 -0.10832 0.61937
Ar 0.95159 -0.10891 0.61872
Ar -0.38139 0.21747 0.61989
Ar 0.00108 0.21883 0.62016
Ar 0.37888 0.21862 0.61946
Ar 0.75985 0.21836 0.62120
Ar 1.14050 0.21854 0.62196
Ar -0.18938 0.54864 0.62191
Ar 0.19092 0.54914 0.62091
Ar 0.57083 0.54753 0.62202
Ar 0.95075 0.54902 0.62124
Ar 1.33109 0.54880 0.61960
Ar 0.00088 0.87749 0.61980
Ar 0.37890 0.87839 0.61928
Ar 0.76058 0.87774 0.62008
Ar 1.13915 0.87792 0.62090
Ar 1.52081 0.87676 0.62112
125
Energy =     1 kcal/mol
Ar -1.46872 -0.89765 -0.74642
Ar -1.15102 -1.00529 -0.53152
Ar -0.76218 -0.83580 -0.67242
Ar -0.39837 -0.75952 -0.77410
Ar 0.07714 -0.95991 -0.68092
Ar -1.37590 -0.59104 -0.53962
Ar -0.97833 -0.56819 -0.66609
Ar -0.60505 -0.49632 -0.54687
Ar -0.27893 -0.46404 -0.54975
Ar 0.26564 -0.51010 -0.55254
Ar -1.09010 -0.20221 -0.67940
Ar -0.68955 -0.12787 -0.55789
Ar -0.42233 -0.22345 -0.75905
Ar -0.04510 -0.27749 -0.67961
Ar 0.24000 -0.16747 -0.67418
Ar -0.90013 0.13249 -0.62004
Ar -0.55657 0.13179 -0.66440
Ar -0.19689 0.07520 -0.67422
Ar 0.08498 0.12768 -0.60202
Ar 0.50827 0.01533 -0.76879
Ar -0.75030 0.43398 -0.68274
Ar -0.37770 0.41487 -0.71807
Ar -0.05145 0.42824 -0.69637
Ar 0.34491 0.52386 -0.54482
Ar 0.73217 0.31954 -0.51983
Ar -1.41050 -0.85990 -0.21308
Ar -1.04398 -0.75126 -0.33830
Ar -0.50328 -0.85962 -0.37253
Ar -0.19057 -0.72213 -0.41826
Ar 0.11964 -0.84680 -0.30843
Ar -1.24839 -0.36849 -0.24957
Ar -0.85704 -0.47895 -0.35810
Ar -0.31405 -0.44485 -0.24821
Ar 0.02356 -0.48507 -0.21713
Ar 0.40250 -0.42682 -0.28375
Ar -0.92258 -0.00389 -0.33191
Ar -0.56171 -0.05682 -0.28911
Ar -0.21513 -0.11944 -0.25487
Ar 0.23599 -0.09087 -0.27602
Ar 0.64137 -0.18957 -0.45690
Ar -0.68084 0.31190 -0.25740
Ar -0.36951 0.26756 -0.19018
Ar -0.09095 0.20138 -0.36878
Ar 0.39517 0.14489 -0.44468
Ar 0.68184 0.14865 -0.22837
Ar -0.61386 0.64617 -0.30940
Ar -0.25961 0.51379 -0.38690
Ar 0.04262 0.49840 -0.31439
Ar 0.61453 0.65964 -0.36430
Ar 0.93273 0.58007 -0.32371
Ar -1.16183 -0.78409 0.08430
Ar -0.81271 -0.70245 0.09574
Ar -0.34851 -0.59536 0.03003
Ar -0.02553 -0.80967 -0.02221
Ar 0.44014 -0.70624 -0.11596
Ar -0.86760 -0.36959 0.07387
Ar -0.53635 -0.31847 -0.07316
Ar -0.22254 -0.26512 0.07820
Ar 0.30194 -0.35709 0.04324
Ar 0.63620 -0.30519 0.06873
Ar -0.79641 -0.02398 -0.04359
Ar -0.42550 0.07996 0.06093
Ar 0.04256 -0.11840 0.02501
Ar 0.43135 0.01212 0.01642
Ar 0.75755 0.08913 0.08315
Ar -0.63351 0.52678 0.04517
Ar -0.14189 0.18613 -0.00035
Ar 0.19823 0.35138 -0.07244
Ar 0.52219 0.34486 0.05095
Ar 0.93385 0.34100 -0.03329
Ar -0.35748 0.64866 -0.10296
Ar -0.04860 0.61668 0.05291
Ar 0.40648 0.65408 -0.08691
Ar 0.74752 0.66446 0.00966
Ar 1.25917 0.56632 -0.06640
Ar -1.05840 -0.52029 0.43764
Ar -0.59696 -0.63826 0.35038
Ar -0.20046 -0.63386 0.33126
Ar 0.12455 -0.63416 0.24721
Ar 0.55615 -0.63499 0.21633
Ar -0.76997 -0.31756 0.38905
Ar -0.49554 -0.20015 0.26603
Ar -0.08435 -0.19485 0.41471
Ar 0.27631 -0.24737 0.32694
Ar 0.82134 -0.14162 0.32097
Ar -0.72795 0.24922 0.24753
Ar -0.16694 0.10222 0.37752
Ar 0.16636 0.08050 0.26778
Ar 0.53317 0.17963 0.30439
Ar 1.02683 0.21172 0.34434
Ar -0.34230 0.39114 0.26013
Ar -0.00967 0.39519 0.29363
Ar 0.33901 0.45090 0.31625
Ar 0.78302 0.40909 0.29707
Ar 1.29303 0.40303 0.26980
Ar -0.23687 0.87132 0.41230
Ar 0.19143 0.89423 0.22709
Ar 0.57524 0.72607 0.27419
Ar 1.11129 0.90503 0.21674
Ar 1.42876 0.85347 0.38796
Ar -0.82195 -0.37827 0.72272
Ar -0.33940 -0.52281 0.67853
Ar -0.00484 -0.50854 0.70576
Ar 0.48692 -0.40552 0.53923
Ar 0.81692 -0.33992 0.59103
Ar -0.60210 -0.16612 0.71037
Ar -0.22858 -0.05273 0.69879
Ar 0.20825 -0.11711 0.59211
Ar 0.56118 -0.07045 0.52783
Ar 1.12259 -0.09941 0.49731
Ar -0.49799 0.16735 0.52031
Ar -0.00028 0.21517 0.61778
Ar 0.34710 0.25970 0.59829
Ar 0.79655 0.17488 0.69852
Ar 1.19755 0.16128 0.76894
Ar -0.12342 0.55866 0.74902
Ar 0.28244 0.60186 0.65137
Ar 0.64702 0.46029 0.75882
Ar 1.02188 0.58163 0.68195
Ar 1.42512 0.53589 0.55354
Ar 0.03815 0.86864 0.59589
Ar 0.37562 0.98336 0.52991
Ar 0.77285 0.88765 0.56374
Ar 1.10533 0.92366 0.65985
Ar 1.61488 0.81066 0.69602
125
Energy =     1 kcal/mol
Ar -1.50874 -0.94244 -0.90343
Ar -1.12446 -1.19843 -0.48830
Ar -0.72655 -0.84386 -0.71156
Ar -0.35562 -0.67801 -0.98937
Ar 0.14709 -1.02957 -0.73226
Ar -1.39356 -0.59659 -0.44167
Ar -1.04845 -0.63899 -0.74922
Ar -0.68047 -0.51196 -0.54342
Ar -0.37334 -0.41336 -0.63935
Ar 0.27229 -0.52546 -0.57942
Ar -1.08536 -0.11699 -0.73014
Ar -0.70113 -0.15531 -0.60163
Ar -0.54492 -0.25593 -0.94797
Ar -0.06853 -0.27952 -0.80842
Ar 0.27787 -0.21642 -0.71303
Ar -0.92726 0.16648 -0.69686
Ar -0.58238 0.17511 -0.71662
Ar -0.26155 0.07235 -0.76321
Ar 0.18314 0.21060 -0.70700
Ar 0.50144 -0.03216 -0.92718
Ar -0.70818 0.53722 -0.74248
Ar -0.40847 0.44462 -0.87558
Ar -0.03675 0.46890 -0.76472
Ar 0.30831 0.56834 -0.57785
Ar 0.76625 0.22669 -0.48367
Ar -1.47790 -0.94230 -0.12629
Ar -1.14478 -0.75073 -0.28775
Ar -0.49352 -0.95302 -0.35586
Ar -0.17356 -0.79548 -0.48507
Ar 0.16025 -0.94929 -0.37102
Ar -1.33678 -0.30858 -0.19571
Ar -0.98460 -0.38515 -0.24838
Ar -0.27423 -0.48151 -0.24675
Ar 0.05140 -0.52523 -0.10276
Ar 0.58234 -0.37779 -0.27760
Ar -0.98658 0.06874 -0.31966
Ar -0.55592 -0.01685 -0.23232
Ar -0.18229 -0.13771 -0.21907
Ar 0.21235 -0.07149 -0.32844
Ar 0.69390 -0.25245 -0.59938
Ar -0.77433 0.36635 -0.23928
Ar -0.41768 0.39300 -0.09130
Ar -0.09516 0.19641 -0.37157
Ar 0.46014 0.09191 -0.54200
Ar 0.62438 0.06355 -0.21080
Ar -0.68895 0.77681 -0.36579
Ar -0.41155 0.58934 -0.55167
Ar -0.06198 0.55138 -0.31248
Ar 0.65410 0.81991 -0.37807
Ar 1.02005 0.58701 -0.40356
Ar -1.19794 -0.90368 0.15834
Ar -0.85020 -0.80834 0.15450
Ar -0.43617 -0.63893 0.13707
Ar -0.03379 -0.97145 0.00933
Ar 0.45555 -0.81247 -0.27957
Ar -0.85520 -0.36700 0.08207
Ar -0.57836 -0.35924 -0.09757
Ar -0.27641 -0.26549 0.14730
Ar 0.36726 -0.54995 0.00570
Ar 0.69387 -0.37255 0.12656
Ar -0.87564 0.03510 0.06794
Ar -0.50204 0.06797 0.10918
Ar 0.15168 -0.22670 -0.00730
Ar 0.43706 0.01187 0.05415
Ar 0.83507 0.21521 0.16065
Ar -0.72367 0.69696 0.10835
Ar -0.02924 0.11296 -0.00446
Ar 0.20846 0.27745 -0.11788
Ar 0.58801 0.42124 -0.08224
Ar 1.02129 0.37641 -0.11511
Ar -0.35492 0.71127 -0.14277
Ar -0.00939 0.61703 0.08502
Ar 0.34858 0.72912 -0.17223
Ar 0.74985 0.72184 -0.00899
Ar 1.36173 0.48077 -0.13608
Ar -1.17818 -0.51303 0.55497
Ar -0.55206 -0.78466 0.42162
Ar -0.21008 -0.70335 0.44491
Ar 0.11814 -0.68782 0.18958
Ar 0.56945 -0.69837 0.21778
Ar -0.84810 -0.32596 0.52779
Ar -0.57914 -0.16427 0.33722
Ar -0.16371 -0.36415 0.51633
Ar 0.20201 -0.27454 0.32393
Ar 0.89851 -0.11072 0.29957
Ar -0.94122 0.39588 0.24327
Ar -0.27605 0.05759 0.35486
Ar 0.22382 0.14255 0.26643
Ar 0.54050 0.18196 0.36896
Ar 1.11336 0.22870 0.37556
Ar -0.41683 0.45119 0.20482
Ar -0.07608 0.39164 0.41242
Ar 0.30541 0.50543 0.35296
Ar 0.79543 0.51218 0.34830
Ar 1.49349 0.42746 0.17968
Ar -0.35531 0.95171 0.44532
Ar 0.17326 0.97899 0.08259
Ar 0.55315 0.75602 0.31017
Ar 1.25565 1.02760 0.12503
Ar 1.51378 0.97270 0.41936
Ar -0.99808 -0.44989 0.86458
Ar -0.36600 -0.59139 0.72145
Ar 0.04836 -0.56170 0.77322
Ar 0.57427 -0.46537 0.48559
Ar 0.90952 -0.26637 0.61709
Ar -0.55863 -0.18780 0.79660
Ar -0.24094 -0.03432 0.79621
Ar 0.16879 -0.14518 0.75676
Ar 0.49863 -0.13088 0.53336
Ar 1.31764 -0.15699 0.44686
Ar -0.60677 0.21493 0.39277
Ar -0.04304 0.27236 0.73209
Ar 0.39204 0.32875 0.68918
Ar 0.91148 0.12818 0.76144
Ar 1.25279 0.12879 0.91196
Ar -0.05114 0.57773 0.86611
Ar 0.37418 0.68995 0.68423
Ar 0.68914 0.43606 0.88888
Ar 1.08270 0.57629 0.72937
Ar 1.50952 0.47983 0.55908
Ar 0.06175 0.85700 0.64524
Ar 0.48039 1.11006 0.47771
Ar 0.74290 0.89028 0.50971
Ar 1.15004 0.99125 0.69867
Ar 1.72601 0.76219 0.79340
125
Energy =     1 kcal/mol
Ar -1.54542 -0.98530 -1.05675
Ar -1.09832 -1.38293 -0.44366
Ar -0.65105 -0.88514 -0.74673
Ar -0.31665 -0.58643 -1.19011
Ar 0.21383 -1.09368 -0.78648
Ar -1.45423 -0.56959 -0.37501
Ar -1.14942 -0.67505 -0.82042
Ar -0.79202 -0.63541 -0.50851
Ar -0.49490 -0.38428 -0.73143
Ar 0.26951 -0.59281 -0.57512
Ar -1.11358 -0.11407 -0.78080
Ar -0.74816 -0.09455 -0.64885
Ar -0.65464 -0.28920 -1.13353
Ar -0.06344 -0.25071 -0.97558
Ar 0.36634 -0.27666 -0.75955
Ar -0.95158 0.28370 -0.76464
Ar -0.60002 0.22821 -0.75616
Ar -0.28648 0.05483 -0.85175
Ar 0.25812 0.32059 -0.81125
Ar 0.50874 -0.06731 -1.08011
Ar -0.78132 0.63071 -0.83352
Ar -0.42166 0.44853 -1.11055
Ar -0.03857 0.54355 -0.82258
Ar 0.26674 0.60661 -0.59526
Ar 0.90042 0.19934 -0.46804
Ar -1.53243 -1.01710 -0.04301
Ar -1.21540 -0.81976 -0.20137
Ar -0.49205 -1.03778 -0.34191
Ar -0.14463 -0.86627 -0.54961
Ar 0.15925 -1.05906 -0.43504
Ar -1.43149 -0.25075 -0.14262
Ar -1.07691 -0.25244 -0.15913
Ar -0.27549 -0.55659 -0.24996
Ar 0.03631 -0.59549 -0.08571
Ar 0.75337 -0.32775 -0.26343
Ar -1.04812 0.12126 -0.31552
Ar -0.55053 0.03435 -0.24314
Ar -0.18210 -0.22259 -0.18392
Ar 0.18309 -0.05181 -0.38576
Ar 0.73355 -0.29561 -0.74965
Ar -0.87056 0.42101 -0.22250
Ar -0.45817 0.41917 -0.17045
Ar -0.08116 0.23944 -0.41798
Ar 0.48522 0.00068 -0.63610
Ar 0.62618 -0.03404 -0.25279
Ar -0.76449 0.89431 -0.42340
Ar -0.49112 0.69324 -0.59863
Ar -0.13046 0.60390 -0.30298
Ar 0.70028 0.96971 -0.39431
Ar 1.10152 0.60803 -0.50376
Ar -1.25032 -1.02240 0.22384
Ar -0.86678 -0.89920 0.20962
Ar -0.51080 -0.65882 0.20622
Ar -0.05018 -1.12815 0.02965
Ar 0.50351 -0.89304 -0.42381
Ar -0.88118 -0.36267 0.14756
Ar -0.59800 -0.38895 -0.12968
Ar -0.32495 -0.28150 0.19605
Ar 0.44454 -0.69898 -0.08162
Ar 0.75569 -0.41197 0.16711
Ar -0.94469 0.08430 0.18534
Ar -0.56761 0.08174 0.10046
Ar 0.32057 -0.33365 -0.04171
Ar 0.41895 -0.05132 0.11712
Ar 0.87782 0.33482 0.17281
Ar -0.80299 0.85435 0.16324
Ar -0.03279 0.06672 0.07795
Ar 0.25310 0.25776 -0.22036
Ar 0.68607 0.49613 -0.19831
Ar 1.10444 0.43177 -0.20168
Ar -0.34570 0.84565 -0.17641
Ar 0.03176 0.61053 0.10607
Ar 0.27858 0.78658 -0.24392
Ar 0.79440 0.80810 -0.04730
Ar 1.46992 0.40679 -0.23519
Ar -1.29961 -0.50912 0.65961
Ar -0.53771 -0.93872 0.52412
Ar -0.17518 -0.82252 0.51405
Ar 0.11235 -0.78157 0.24115
Ar 0.60914 -0.82826 0.23948
Ar -0.92995 -0.34125 0.66968
Ar -0.67674 -0.17567 0.45007
Ar -0.22038 -0.46377 0.60576
Ar 0.13326 -0.31274 0.33965
Ar 0.98496 -0.11888 0.30036
Ar -1.14004 0.53312 0.23187
Ar -0.33808 0.01286 0.36797
Ar 0.17983 0.19637 0.30288
Ar 0.57492 0.27529 0.45738
Ar 1.24046 0.22844 0.43461
Ar -0.48382 0.55609 0.29998
Ar -0.12639 0.40047 0.49337
Ar 0.20087 0.51066 0.40254
Ar 0.79525 0.63192 0.41080
Ar 1.69252 0.44141 0.10545
Ar -0.46961 1.02463 0.47534
Ar 0.15799 1.05090 -0.05557
Ar 0.46074 0.81069 0.25535
Ar 1.39881 1.14530 0.03749
Ar 1.59351 1.08515 0.45570
Ar -1.16847 -0.52150 1.01465
Ar -0.43513 -0.65511 0.80970
Ar 0.09660 -0.60511 0.82723
Ar 0.65642 -0.55199 0.45761
Ar 1.00341 -0.20086 0.65767
Ar -0.53325 -0.22566 0.86544
Ar -0.23411 -0.02133 0.88225
Ar 0.11686 -0.16439 0.92578
Ar 0.42904 -0.19729 0.58122
Ar 1.49750 -0.20619 0.39779
Ar -0.74845 0.28095 0.32602
Ar -0.06080 0.27060 0.84945
Ar 0.43083 0.35212 0.77047
Ar 1.02662 0.08214 0.80701
Ar 1.30828 0.09940 1.04876
Ar 0.02287 0.64423 0.99899
Ar 0.48079 0.80941 0.71513
Ar 0.73056 0.42454 1.00989
Ar 1.13778 0.56460 0.76792
Ar 1.59054 0.43369 0.58163
Ar 0.07643 0.85042 0.68178
Ar 0.55656 1.23969 0.41975
Ar 0.83883 0.93967 0.56799
Ar 1.19388 1.05032 0.72945
Ar 1.83007 0.71124 0.88332
125
Energy =     1 kcal/mol
Ar -1.58042 -1.02691 -1.20874
Ar -1.07209 -1.56491 -0.39826
Ar -0.57160 -0.93029 -0.78103
Ar -0.28035 -0.48647 -1.38322
Ar 0.28132 -1.15350 -0.85088
Ar -1.52382 -0.52919 -0.31395
Ar -1.24594 -0.71005 -0.88544
Ar -0.90475 -0.74651 -0.46644
Ar -0.61718 -0.35109 -0.82606
Ar 0.26419 -0.68348 -0.55368
Ar -1.13547 -0.11082 -0.82650
Ar -0.79622 -0.03657 -0.69091
Ar -0.75761 -0.32456 -1.30768
Ar -0.06235 -0.22144 -1.13714
Ar 0.41646 -0.37812 -0.84054
Ar -1.00100 0.39639 -0.82354
Ar -0.59363 0.29521 -0.79372
Ar -0.30134 0.03144 -0.93950
Ar 0.35397 0.39048 -0.91208
Ar 0.51409 -0.10532 -1.21632
Ar -0.90682 0.70737 -0.96180
Ar -0.43451 0.44848 -1.33231
Ar -0.06853 0.63479 -0.87583
Ar 0.22085 0.64618 -0.60394
Ar 1.02909 0.17807 -0.44437
Ar -1.57873 -1.08698 0.03840
Ar -1.27315 -0.90038 -0.09967
Ar -0.48688 -1.11231 -0.33406
Ar -0.11865 -0.93145 -0.60841
Ar 0.14701 -1.16516 -0.48041
Ar -1.54353 -0.19571 -0.09123
Ar -1.14370 -0.11740 -0.07805
Ar -0.31008 -0.66839 -0.27173
Ar 0.01146 -0.66000 -0.10791
Ar 0.94358 -0.35077 -0.24682
Ar -1.10795 0.15484 -0.31694
Ar -0.54724 0.06815 -0.34227
Ar -0.17202 -0.26789 -0.13327
Ar 0.15171 -0.04931 -0.44535
Ar 0.77282 -0.33004 -0.89540
Ar -0.94818 0.48386 -0.19907
Ar -0.49950 0.43740 -0.25601
Ar -0.06447 0.28002 -0.46223
Ar 0.54000 -0.02721 -0.69787
Ar 0.58682 -0.05435 -0.29443
Ar -0.83504 1.00338 -0.47958
Ar -0.50761 0.79970 -0.59642
Ar -0.17168 0.63267 -0.30387
Ar 0.74380 1.10964 -0.40312
Ar 1.17715 0.64619 -0.63326
Ar -1.29962 -1.13632 0.28255
Ar -0.87838 -0.98326 0.26600
Ar -0.58486 -0.66803 0.27348
Ar -0.06415 -1.27395 0.04869
Ar 0.55227 -0.96048 -0.56413
Ar -0.90140 -0.35205 0.22952
Ar -0.60470 -0.41083 -0.16029
Ar -0.37530 -0.33330 0.21695
Ar 0.52446 -0.83808 -0.17897
Ar 0.82129 -0.42783 0.15919
Ar -1.07968 0.05425 0.24277
Ar -0.62378 0.08995 0.13176
Ar 0.47998 -0.45740 -0.10443
Ar 0.42284 -0.07016 0.20279
Ar 0.91721 0.45377 0.18213
Ar -0.87602 1.00219 0.21935
Ar -0.08721 -0.01629 0.12601
Ar 0.31284 0.25926 -0.31938
Ar 0.77430 0.53166 -0.32653
Ar 1.15599 0.46209 -0.24761
Ar -0.36048 0.99443 -0.19998
Ar 0.06766 0.60432 0.10716
Ar 0.21912 0.81245 -0.32209
Ar 0.84846 0.92165 -0.07031
Ar 1.59205 0.33640 -0.33439
Ar -1.41508 -0.50342 0.76127
Ar -0.52745 -1.08394 0.62542
Ar -0.13537 -0.96495 0.57030
Ar 0.11448 -0.89678 0.33375
Ar 0.64745 -0.98211 0.24236
Ar -1.01465 -0.36165 0.81504
Ar -0.76475 -0.18265 0.54922
Ar -0.25164 -0.50329 0.67445
Ar 0.06291 -0.34800 0.35852
Ar 1.06789 -0.11717 0.29007
Ar -1.32690 0.66626 0.21727
Ar -0.38284 0.00386 0.41758
Ar 0.15782 0.18623 0.35666
Ar 0.61796 0.36862 0.51913
Ar 1.36086 0.22570 0.49915
Ar -0.54278 0.66516 0.39455
Ar -0.18867 0.40192 0.56294
Ar 0.13605 0.60583 0.49371
Ar 0.78372 0.72048 0.46131
Ar 1.88652 0.45441 0.03441
Ar -0.58489 1.09070 0.50077
Ar 0.13232 1.13817 -0.17352
Ar 0.36250 0.86055 0.20064
Ar 1.54327 1.26093 -0.04507
Ar 1.66724 1.19577 0.49085
Ar -1.33399 -0.59027 1.16126
Ar -0.52937 -0.73574 0.91620
Ar 0.13538 -0.64058 0.87122
Ar 0.72417 -0.62257 0.49391
Ar 1.08917 -0.21620 0.66422
Ar -0.52247 -0.28117 0.91879
Ar -0.23548 -0.03651 0.96395
Ar 0.06607 -0.18630 1.08517
Ar 0.35574 -0.26217 0.61984
Ar 1.66995 -0.25051 0.34969
Ar -0.83698 0.43141 0.33999
Ar -0.04993 0.30054 0.96122
Ar 0.45564 0.38611 0.86376
Ar 1.14291 0.12377 0.88269
Ar 1.36678 0.07185 1.18522
Ar 0.09911 0.70758 1.12565
Ar 0.59057 0.91982 0.73298
Ar 0.77392 0.41213 1.12046
Ar 1.18861 0.54860 0.80001
Ar 1.66549 0.38845 0.60249
Ar 0.09528 0.83816 0.71415
Ar 0.63343 1.35740 0.36222
Ar 0.93582 1.01171 0.64147
Ar 1.23883 1.10386 0.75630
Ar 1.93019 0.65792 0.96892
125
Energy =     1 kcal/mol
Ar -1.59699 -1.05610 -1.34540
Ar -1.04570 -1.74593 -0.35254
Ar -0.48946 -0.97278 -0.80653
Ar -0.24419 -0.38075 -1.57066
Ar 0.34861 -1.20757 -0.90645
Ar -1.58944 -0.48663 -0.24769
Ar -1.34098 -0.74463 -0.94854
Ar -1.01434 -0.85738 -0.42527
Ar -0.74096 -0.31312 -0.92168
Ar 0.26069 -0.78077 -0.52881
Ar -1.15651 -0.10657 -0.87155
Ar -0.83466 0.02974 -0.72790
Ar -0.85623 -0.36053 -1.47667
Ar -0.06634 -0.19222 -1.29721
Ar 0.44861 -0.48876 -0.92195
Ar -1.04836 0.48390 -0.87011
Ar -0.58976 0.35822 -0.82763
Ar -0.31985 0.00734 -1.02500
Ar 0.44487 0.46011 -1.00469
Ar 0.51940 -0.14740 -1.34079
Ar -1.02279 0.79950 -1.09363
Ar -0.44746 0.44705 -1.54932
Ar -0.09548 0.72142 -0.92160
Ar 0.16982 0.63920 -0.67284
Ar 1.14955 0.15508 -0.42127
Ar -1.62635 -1.15535 0.11726
Ar -1.32981 -0.98038 0.00559
Ar -0.47751 -1.17773 -0.33062
Ar -0.09534 -0.99111 -0.66228
Ar 0.14182 -1.26401 -0.52578
Ar -1.64894 -0.14396 -0.04276
Ar -1.21261 -0.00203 -0.02108
Ar -0.36499 -0.77784 -0.30240
Ar 0.00719 -0.71921 -0.12042
Ar 1.12684 -0.37626 -0.22321
Ar -1.16201 0.19251 -0.32667
Ar -0.54685 0.09996 -0.44364
Ar -0.16867 -0.32838 -0.08542
Ar 0.12253 -0.05295 -0.50716
Ar 0.81634 -0.35638 -1.04060
Ar -1.01775 0.54429 -0.17422
Ar -0.54213 0.45740 -0.34412
Ar -0.04366 0.32560 -0.50345
Ar 0.59602 -0.04761 -0.74997
Ar 0.53712 -0.06996 -0.34035
Ar -0.89891 1.10615 -0.53660
Ar -0.52407 0.90215 -0.58565
Ar -0.20574 0.66168 -0.30809
Ar 0.78704 1.24383 -0.40656
Ar 1.24925 0.67879 -0.75408
Ar -1.34012 -1.24491 0.33769
Ar -0.88989 -1.06290 0.32298
Ar -0.66161 -0.67079 0.33989
Ar -0.07724 -1.41375 0.06787
Ar 0.58714 -1.02500 -0.70053
Ar -0.91450 -0.33496 0.30771
Ar -0.60186 -0.43123 -0.18264
Ar -0.42327 -0.38488 0.23029
Ar 0.60006 -0.97317 -0.27928
Ar 0.88438 -0.43702 0.14246
Ar -1.20408 0.02470 0.32892
Ar -0.68429 0.09454 0.16203
Ar 0.64301 -0.57883 -0.16642
Ar 0.41953 -0.09164 0.29139
Ar 0.95208 0.57667 0.19440
Ar -0.94500 1.14514 0.27774
Ar -0.14904 -0.10189 0.18569
Ar 0.37427 0.26863 -0.41881
Ar 0.86923 0.56515 -0.45257
Ar 1.20640 0.50023 -0.29188
Ar -0.37385 1.13477 -0.22884
Ar 0.10234 0.59630 0.10261
Ar 0.15737 0.85546 -0.33987
Ar 0.89870 1.02948 -0.09613
Ar 1.70947 0.26861 -0.42978
Ar -1.52210 -0.49671 0.86906
Ar -0.51267 -1.21896 0.72510
Ar -0.12170 -1.10658 0.64662
Ar 0.13506 -1.00311 0.40379
Ar 0.68256 -1.12705 0.24268
Ar -1.09915 -0.38302 0.95640
Ar -0.84639 -0.19020 0.64551
Ar -0.28313 -0.54208 0.74251
Ar -0.01157 -0.37701 0.37505
Ar 1.14765 -0.11734 0.28102
Ar -1.50857 0.79812 0.20181
Ar -0.42354 -0.00437 0.46815
Ar 0.13862 0.18050 0.41560
Ar 0.66171 0.46410 0.57305
Ar 1.45052 0.20925 0.56350
Ar -0.60024 0.77724 0.48885
Ar -0.24809 0.39824 0.63079
Ar 0.08966 0.62485 0.51348
Ar 0.76817 0.79326 0.50014
Ar 2.07666 0.46622 -0.03855
Ar -0.70131 1.14874 0.52206
Ar 0.10131 1.23151 -0.28306
Ar 0.26336 0.90652 0.14856
Ar 1.68782 1.37579 -0.12542
Ar 1.73726 1.30537 0.52587
Ar -1.49860 -0.65637 1.29954
Ar -0.61916 -0.81140 1.01311
Ar 0.16763 -0.66951 0.90749
Ar 0.78831 -0.69291 0.52785
Ar 1.17368 -0.23807 0.66149
Ar -0.51285 -0.34463 0.96068
Ar -0.25156 -0.05082 1.03574
Ar 0.02737 -0.21529 1.24341
Ar 0.27681 -0.32802 0.65053
Ar 1.83961 -0.29255 0.30228
Ar -0.91995 0.58210 0.35132
Ar -0.03242 0.33939 1.06545
Ar 0.47841 0.42515 0.96011
Ar 1.26097 0.18260 0.95651
Ar 1.42447 0.04555 1.31923
Ar 0.17570 0.76635 1.24123
Ar 0.67762 1.02324 0.75260
Ar 0.81550 0.39885 1.22201
Ar 1.23763 0.52568 0.82799
Ar 1.76050 0.35579 0.63152
Ar 0.10866 0.89193 0.82098
Ar 0.71134 1.46898 0.30598
Ar 1.00064 1.08020 0.69599
Ar 1.33674 1.17039 0.79951
Ar 2.00130 0.59477 1.03833
125
Energy =     1 kcal/mol
Ar -1.47039 -0.98988 -1.36057
Ar -1.01921 -1.92648 -0.30667
Ar -0.40263 -1.01507 -0.82489
Ar -0.21058 -0.27568 -1.76007
Ar 0.39455 -1.27299 -0.96632
Ar -1.65418 -0.43945 -0.17760
Ar -1.43584 -0.77979 -1.01230
Ar -1.12327 -0.96801 -0.38270
Ar -0.86824 -0.26646 -1.01494
Ar 0.25839 -0.88794 -0.50320
Ar -1.17332 -0.10331 -0.91644
Ar -0.86353 0.10136 -0.76348
Ar -0.95330 -0.39618 -1.64326
Ar -0.07165 -0.15835 -1.44914
Ar 0.48512 -0.59506 -1.00165
Ar -1.09000 0.56499 -0.91347
Ar -0.58999 0.41318 -0.85285
Ar -0.33947 -0.01755 -1.11074
Ar 0.53186 0.53005 -1.09099
Ar 0.52608 -0.19270 -1.45838
Ar -1.13684 0.89235 -1.22410
Ar -0.46032 0.44502 -1.76497
Ar -0.12528 0.80674 -0.96515
Ar 0.12081 0.61906 -0.74426
Ar 1.26667 0.13065 -0.39976
Ar -1.68699 -1.22857 0.19738
Ar -1.37334 -1.05709 0.11156
Ar -0.46436 -1.23590 -0.33020
Ar -0.07081 -1.04829 -0.71035
Ar 0.14096 -1.35388 -0.57673
Ar -1.74627 -0.09521 0.00325
Ar -1.28821 0.09504 -0.00201
Ar -0.41726 -0.88537 -0.33207
Ar -0.00223 -0.77354 -0.13719
Ar 1.30311 -0.40067 -0.19321
Ar -1.20928 0.23989 -0.34439
Ar -0.54986 0.12882 -0.55369
Ar -0.17330 -0.41196 -0.04794
Ar 0.10109 -0.04690 -0.56568
Ar 0.84958 -0.37914 -1.18393
Ar -1.08539 0.59752 -0.15031
Ar -0.58236 0.48558 -0.43543
Ar -0.01826 0.37418 -0.54145
Ar 0.64781 -0.07161 -0.79701
Ar 0.48243 -0.08526 -0.39413
Ar -0.95585 1.20406 -0.59403
Ar -0.54042 1.00320 -0.56651
Ar -0.23519 0.69025 -0.31861
Ar 0.83089 1.37439 -0.40590
Ar 1.31783 0.70800 -0.86786
Ar -1.37308 -1.34815 0.38961
Ar -0.90273 -1.13841 0.37992
Ar -0.74091 -0.66792 0.40535
Ar -0.09018 -1.55043 0.08708
Ar 0.63103 -1.07135 -0.81459
Ar -0.92131 -0.31631 0.38101
Ar -0.58819 -0.45349 -0.19765
Ar -0.46673 -0.42943 0.24119
Ar 0.67075 -1.10108 -0.38581
Ar 0.94845 -0.44448 0.12220
Ar -1.31702 0.00133 0.46178
Ar -0.74356 0.09275 0.19773
Ar 0.80900 -0.70152 -0.22683
Ar 0.40723 -0.11383 0.38540
Ar 0.98200 0.70360 0.21201
Ar -1.03943 1.28573 0.30957
Ar -0.22396 -0.14996 0.25522
Ar 0.42703 0.27531 -0.52453
Ar 0.96712 0.59671 -0.57922
Ar 1.25798 0.54342 -0.33595
Ar -0.38397 1.26776 -0.26393
Ar 0.12714 0.57117 0.09888
Ar 0.08896 0.89807 -0.34516
Ar 0.94698 1.13589 -0.12388
Ar 1.82416 0.20203 -0.52349
Ar -1.62224 -0.49015 0.98286
Ar -0.49289 -1.34779 0.82355
Ar -0.12330 -1.24983 0.73252
Ar 0.16432 -1.10495 0.46407
Ar 0.71612 -1.26768 0.24228
Ar -1.18437 -0.40414 1.09191
Ar -0.92436 -0.19906 0.74559
Ar -0.30497 -0.58609 0.80028
Ar -0.07955 -0.42595 0.40629
Ar 1.22475 -0.12260 0.27519
Ar -1.68817 0.92947 0.18615
Ar -0.46362 -0.01766 0.51093
Ar 0.11620 0.17433 0.47252
Ar 0.69681 0.53896 0.63536
Ar 1.50118 0.17731 0.62792
Ar -0.65983 0.88476 0.58092
Ar -0.29994 0.39226 0.69590
Ar 0.04384 0.61806 0.50843
Ar 0.77040 0.87556 0.51685
Ar 2.26498 0.47728 -0.11236
Ar -0.79193 1.20509 0.56939
Ar 0.06694 1.31941 -0.39080
Ar 0.17111 0.96624 0.09772
Ar 1.82046 1.48080 -0.20377
Ar 1.78797 1.40131 0.55726
Ar -1.66248 -0.71993 1.43160
Ar -0.70514 -0.88264 1.10430
Ar 0.19600 -0.69221 0.93681
Ar 0.85210 -0.76094 0.55587
Ar 1.25858 -0.25390 0.65371
Ar -0.51021 -0.40074 1.00553
Ar -0.26892 -0.06479 1.10309
Ar -0.01136 -0.24462 1.39798
Ar 0.19203 -0.39530 0.67544
Ar 2.00811 -0.33361 0.25519
Ar -0.99887 0.73436 0.36083
Ar -0.01486 0.37649 1.16447
Ar 0.50445 0.46707 1.05419
Ar 1.38485 0.22653 1.03347
Ar 1.47932 0.02186 1.44684
Ar 0.25172 0.82205 1.34726
Ar 0.69884 1.12617 0.79618
Ar 0.85382 0.38577 1.31644
Ar 1.28512 0.51176 0.84602
Ar 1.88504 0.33946 0.67158
Ar 0.12309 0.95845 0.95006
Ar 0.78981 1.57757 0.25013
Ar 1.09576 1.14719 0.72780
Ar 1.46129 1.24359 0.84854
Ar 1.92451 0.48609 1.02928
125
Energy =     1 kcal/mol
Ar -1.32761 -0.91364 -1.36377
Ar -0.98998 -2.10121 -0.26001
Ar -0.34523 -1.05374 -0.84758
Ar -0.18230 -0.17466 -1.95969
Ar 0.40852 -1.36036 -1.03930
Ar -1.71926 -0.38730 -0.10466
Ar -1.53189 -0.81484 -1.07528
Ar -1.23221 -1.07860 -0.33836
Ar -0.95966 -0.23323 -1.12126
Ar 0.25317 -1.00331 -0.47890
Ar -1.21992 -0.07711 -0.94247
Ar -0.89368 0.17397 -0.80472
Ar -1.04999 -0.43162 -1.80873
Ar -0.07427 -0.11809 -1.58557
Ar 0.52650 -0.69999 -1.08133
Ar -1.12777 0.64650 -0.95824
Ar -0.59434 0.46047 -0.86873
Ar -0.35828 -0.04280 -1.19805
Ar 0.61691 0.59949 -1.17390
Ar 0.53515 -0.24065 -1.57112
Ar -1.24998 0.98097 -1.35018
Ar -0.47302 0.44249 -1.98012
Ar -0.15646 0.89041 -1.00587
Ar 0.08650 0.62250 -0.83173
Ar 1.38373 0.11202 -0.37734
Ar -1.75252 -1.30642 0.28071
Ar -1.40678 -1.13336 0.21875
Ar -0.45122 -1.31918 -0.33134
Ar -0.00942 -1.10948 -0.74078
Ar 0.14207 -1.43369 -0.63214
Ar -1.83760 -0.04953 0.04712
Ar -1.36509 0.19018 0.02190
Ar -0.46207 -0.96125 -0.36297
Ar -0.01676 -0.82453 -0.15867
Ar 1.47402 -0.42353 -0.15879
Ar -1.25211 0.29302 -0.36153
Ar -0.55068 0.15984 -0.66821
Ar -0.18605 -0.50065 -0.00228
Ar 0.08776 -0.03088 -0.62104
Ar 0.87334 -0.40071 -1.32619
Ar -1.15351 0.64337 -0.12765
Ar -0.61787 0.51902 -0.52977
Ar -0.00413 0.39748 -0.55435
Ar 0.69456 -0.09520 -0.83786
Ar 0.42391 -0.09713 -0.45752
Ar -1.00729 1.29865 -0.65103
Ar -0.55565 1.10472 -0.54114
Ar -0.26576 0.71427 -0.33657
Ar 0.87528 1.50285 -0.40257
Ar 1.38206 0.73496 -0.97609
Ar -1.40496 -1.44502 0.43630
Ar -0.91822 -1.21105 0.43644
Ar -0.81821 -0.65919 0.46921
Ar -0.10316 -1.68537 0.10624
Ar 0.69912 -1.09145 -0.90071
Ar -0.92083 -0.29545 0.45330
Ar -0.56490 -0.47818 -0.20457
Ar -0.51080 -0.47562 0.25105
Ar 0.73721 -1.22154 -0.49839
Ar 1.01707 -0.45092 0.09895
Ar -1.42457 -0.02456 0.59072
Ar -0.80013 0.08345 0.24003
Ar 0.97511 -0.82559 -0.28541
Ar 0.38561 -0.13555 0.48402
Ar 1.00738 0.83414 0.23501
Ar -1.14609 1.42541 0.32851
Ar -0.30800 -0.16359 0.30043
Ar 0.47084 0.27693 -0.63389
Ar 1.06937 0.62775 -0.70733
Ar 1.30851 0.58171 -0.38303
Ar -0.39090 1.39446 -0.30553
Ar 0.14836 0.54699 0.09971
Ar 0.01863 0.94220 -0.34845
Ar 0.99410 1.24221 -0.15158
Ar 1.93708 0.13586 -0.61621
Ar -1.71673 -0.48419 1.10125
Ar -0.47033 -1.47360 0.92100
Ar -0.12451 -1.39067 0.81518
Ar 0.18963 -1.20790 0.52765
Ar 0.74874 -1.40643 0.24178
Ar -1.27178 -0.42492 1.22233
Ar -1.00134 -0.21031 0.84519
Ar -0.30104 -0.64648 0.83158
Ar -0.14073 -0.50831 0.45265
Ar 1.29991 -0.13361 0.27250
Ar -1.86688 1.06061 0.17045
Ar -0.51114 -0.03038 0.55450
Ar 0.09231 0.16834 0.52775
Ar 0.72742 0.60125 0.70506
Ar 1.54836 0.14788 0.70123
Ar -0.71171 0.95974 0.67040
Ar -0.34567 0.38347 0.75708
Ar -0.00272 0.60370 0.49934
Ar 0.78277 0.97009 0.52586
Ar 2.23136 0.44224 -0.17350
Ar -0.88278 1.28717 0.62769
Ar 0.02800 1.39872 -0.49580
Ar 0.07786 1.02293 0.04199
Ar 1.71890 1.39535 -0.25484
Ar 1.68073 1.37457 0.54359
Ar -1.65516 -0.70781 1.41332
Ar -0.78883 -0.95115 1.19260
Ar 0.22094 -0.71089 0.96106
Ar 0.91574 -0.82758 0.58123
Ar 1.34432 -0.26393 0.63997
Ar -0.52750 -0.43316 1.07049
Ar -0.28488 -0.08456 1.17045
Ar -0.05438 -0.27130 1.54641
Ar 0.10711 -0.46187 0.70033
Ar 2.17604 -0.37425 0.20821
Ar -1.07232 0.89106 0.37159
Ar 0.00363 0.41298 1.26034
Ar 0.53351 0.51109 1.14804
Ar 1.51755 0.25017 1.11731
Ar 1.53286 0.00077 1.56931
Ar 0.32648 0.87596 1.44451
Ar 0.71752 1.22768 0.84059
Ar 0.88824 0.37388 1.40551
Ar 1.32995 0.51174 0.85067
Ar 2.00634 0.32010 0.70617
Ar 0.14058 1.01977 1.08291
Ar 0.86872 1.68409 0.19370
Ar 1.19270 1.21197 0.75772
Ar 1.58484 1.31678 0.89292
Ar 1.83341 0.37493 1.02077
125
Energy =     1 kcal/mol
Ar -1.18253 -0.83978 -1.37316
Ar -0.86787 -2.07517 -0.18951
Ar -0.31414 -1.08879 -0.87379
Ar -0.15377 -0.07312 -2.15647
Ar 0.42206 -1.44386 -1.10573
Ar -1.78463 -0.33210 -0.03026
Ar -1.62970 -0.84679 -1.13200
Ar -1.34122 -1.18919 -0.29249
Ar -1.01075 -0.21954 -1.24675
Ar 0.24607 -1.12239 -0.45232
Ar -1.30014 -0.02418 -0.94489
Ar -0.92847 0.24922 -0.85108
Ar -1.14608 -0.46689 -1.97250
Ar -0.07905 -0.07718 -1.72090
Ar 0.57165 -0.80753 -1.15974
Ar -1.16299 0.72695 -1.00312
Ar -0.60065 0.50595 -0.93463
Ar -0.37608 -0.06770 -1.28666
Ar 0.70146 0.66835 -1.25486
Ar 0.54792 -0.29093 -1.67967
Ar -1.36237 1.06773 -1.47393
Ar -0.48541 0.43931 -2.19500
Ar -0.18513 0.96927 -1.04175
Ar 0.05512 0.64047 -0.93058
Ar 1.50086 0.09719 -0.35462
Ar -1.80946 -1.38478 0.36587
Ar -1.44042 -1.21018 0.32584
Ar -0.43683 -1.42341 -0.33252
Ar 0.07713 -1.16925 -0.76406
Ar 0.14809 -1.51218 -0.68754
Ar -1.92504 -0.00525 0.08995
Ar -1.44040 0.28725 0.04078
Ar -0.50166 -1.01156 -0.39616
Ar -0.03439 -0.87411 -0.18362
Ar 1.64113 -0.44440 -0.12169
Ar -1.29336 0.34975 -0.37080
Ar -0.54451 0.18455 -0.77409
Ar -0.20886 -0.58984 0.05141
Ar 0.07263 -0.00436 -0.67764
Ar 0.88971 -0.42120 -1.46930
Ar -1.22333 0.68160 -0.10672
Ar -0.65302 0.55891 -0.57891